264
Lattice="35.64116197 0.0 0.0 0.0 14.76438959 0.0 0.0 0.0 15.34360376" Properties=species:S:1:pos:R:3 i=16 E=-4582.6142850676 pbc="T T T"
Au       1.20550737       0.73821948       0.22515592
Au       1.20550737       0.73821948       5.33969050
Au       1.20550737       0.73821948      10.45422509
Au       1.20550737       2.21465844       2.78242321
Au       1.20550737       2.21465844       7.89695779
Au       1.20550737       2.21465844      13.01149238
Au       1.20550737       3.69109740       0.22515592
Au       1.20550737       3.69109740       5.33969050
Au       1.20550737       3.69109740      10.45422509
Au       1.20550737       5.16753636       2.78242321
Au       1.20550737       5.16753636       7.89695779
Au       1.20550737       5.16753636      13.01149238
Au       1.20550737       6.64397532       0.22515592
Au       1.20550737       6.64397532       5.33969050
Au       1.20550737       6.64397532      10.45422509
Au       1.20550737       8.12041428       2.78242321
Au       1.20550737       8.12041428       7.89695779
Au       1.20550737       8.12041428      13.01149238
Au       1.20550737       9.59685323       0.22515592
Au       1.20550737       9.59685323       5.33969050
Au       1.20550737       9.59685323      10.45422509
Au       1.20550737      11.07329219       2.78242321
Au       1.20550737      11.07329219       7.89695779
Au       1.20550737      11.07329219      13.01149238
Au       1.20550737      12.54973115       0.22515592
Au       1.20550737      12.54973115       5.33969050
Au       1.20550737      12.54973115      10.45422509
Au       1.20550737      14.02617011       2.78242321
Au       1.20550737      14.02617011       7.89695779
Au       1.20550737      14.02617011      13.01149238
Au       3.61652209       0.73821948       3.63484564
Au       3.61652209       0.73821948       8.74938022
Au       3.61652209       0.73821948      13.86391481
Au       3.61652209       2.21465844       1.07757835
Au       3.61652209       2.21465844       6.19211293
Au       3.61652209       2.21465844      11.30664752
Au       3.61652209       3.69109740       3.63484564
Au       3.61652209       3.69109740       8.74938022
Au       3.61652209       3.69109740      13.86391481
Au       3.61652209       5.16753636       1.07757835
Au       3.61652209       5.16753636       6.19211293
Au       3.61652209       5.16753636      11.30664752
Au       3.61652209       6.64397532       3.63484564
Au       3.61652209       6.64397532       8.74938022
Au       3.61652209       6.64397532      13.86391481
Au       3.61652209       8.12041428       1.07757835
Au       3.61652209       8.12041428       6.19211293
Au       3.61652209       8.12041428      11.30664752
Au       3.61652209       9.59685323       3.63484564
Au       3.61652209       9.59685323       8.74938022
Au       3.61652209       9.59685323      13.86391481
Au       3.61652209      11.07329219       1.07757835
Au       3.61652209      11.07329219       6.19211293
Au       3.61652209      11.07329219      11.30664752
Au       3.61652209      12.54973115       3.63484564
Au       3.61652209      12.54973115       8.74938022
Au       3.61652209      12.54973115      13.86391481
Au       3.61652209      14.02617011       1.07757835
Au       3.61652209      14.02617011       6.19211293
Au       3.61652209      14.02617011      11.30664752
Au       6.02753682       0.73821948       1.93000078
Au       6.02753682       0.73821948       7.04453536
Au       6.02753682       0.73821948      12.15906995
Au       6.02753682       2.21465844       4.48726807
Au       6.02753682       2.21465844       9.60180266
Au       6.02753682       2.21465844      14.71633724
Au       6.02753682       3.69109740       1.93000078
Au       6.02753682       3.69109740       7.04453536
Au       6.02753682       3.69109740      12.15906995
Au       6.02753682       5.16753636       4.48726807
Au       6.02753682       5.16753636       9.60180266
Au       6.02753682       5.16753636      14.71633724
Au       6.02753682       6.64397532       1.93000078
Au       6.02753682       6.64397532       7.04453536
Au       6.02753682       6.64397532      12.15906995
Au       6.02753682       8.12041428       4.48726807
Au       6.02753682       8.12041428       9.60180266
Au       6.02753682       8.12041428      14.71633724
Au       6.02753682       9.59685323       1.93000078
Au       6.02753682       9.59685323       7.04453536
Au       6.02753682       9.59685323      12.15906995
Au       6.02753682      11.07329219       4.48726807
Au       6.02753682      11.07329219       9.60180266
Au       6.02753682      11.07329219      14.71633724
Au       6.02753682      12.54973115       1.93000078
Au       6.02753682      12.54973115       7.04453536
Au       6.02753682      12.54973115      12.15906995
Au       6.02753682      14.02617011       4.48726807
Au       6.02753682      14.02617011       9.60180266
Au       6.02753682      14.02617011      14.71633724
Au       8.43855154       0.73821948       0.22515592
Au       8.43855154       0.73821948       5.33969050
Au       8.43855154       0.73821948      10.45422509
Au       8.43855154       2.21465844       2.78242321
Au       8.43855154       2.21465844       7.89695779
Au       8.43855154       2.21465844      13.01149238
Au       8.43855154       3.69109740       0.22515592
Au       8.43855154       3.69109740       5.33969050
Au       8.43855154       3.69109740      10.45422509
Au       8.43855154       5.16753636       2.78242321
Au       8.43855154       5.16753636       7.89695779
Au       8.43855154       5.16753636      13.01149238
Au       8.43855154       6.64397532       0.22515592
Au       8.43855154       6.64397532       5.33969050
Au       8.43855154       6.64397532      10.45422509
Au       8.43855154       8.12041428       2.78242321
Au       8.43855154       8.12041428       7.89695779
Au       8.43855154       8.12041428      13.01149238
Au       8.43855154       9.59685323       0.22515592
Au       8.43855154       9.59685323       5.33969050
Au       8.43855154       9.59685323      10.45422509
Au       8.43855154      11.07329219       2.78242321
Au       8.43855154      11.07329219       7.89695779
Au       8.43855154      11.07329219      13.01149238
Au       8.43855154      12.54973115       0.22515592
Au       8.43855154      12.54973115       5.33969050
Au       8.43855154      12.54973115      10.45422509
Au       8.43855154      14.02617011       2.78242321
Au       8.43855154      14.02617011       7.89695779
Au       8.43855154      14.02617011      13.01149238
Au      10.68014454       5.16497373       6.20267690
Au      10.68844191       6.64394928       3.63176429
Au      10.67879394       8.12408800       6.20267183
Au      12.86966244       6.64539795       5.41697754
H       15.01324495       5.84450248       3.70035104
H       15.01882288       7.49718808       3.71952621
N       15.20466301       6.66366661       4.27651880
C       16.53086828       6.65301859       4.80500319
H       16.67554964       4.49689754       4.88937867
H       16.71451290       8.80634581       4.87897783
C       17.18227150       5.44324534       5.08400142
C       17.20376984       7.85202206       5.07934886
C       18.47387992       5.43299196       5.60890726
C       18.49527119       7.84173810       5.60428981
H       18.96273765       4.47848111       5.80932551
H       19.00169117       8.78818003       5.79903352
C       19.14652402       6.63202678       5.88445153
N       20.47177925       6.62217540       6.41515178
H       20.65788436       5.78798635       6.97102961
H       20.66159994       7.44178654       6.99116783
Au      22.80023506       6.64509883       5.25055022
Au      24.96298048       5.15306557       6.19499468
Au      24.95052954       6.64485557       3.58776986
Au      24.96300406       8.13548919       6.19487856
Au      27.20261044       0.73821948       1.93000078
Au      27.20261044       0.73821948       7.04453536
Au      27.20261044       0.73821948      12.15906995
Au      27.20261044       2.21465844       4.48726807
Au      27.20261044       2.21465844       9.60180266
Au      27.20261044       2.21465844      14.71633724
Au      27.20261044       3.69109740       1.93000078
Au      27.20261044       3.69109740       7.04453536
Au      27.20261044       3.69109740      12.15906995
Au      27.20261044       5.16753636       4.48726807
Au      27.20261044       5.16753636       9.60180266
Au      27.20261044       5.16753636      14.71633724
Au      27.20261044       6.64397532       1.93000078
Au      27.20261044       6.64397532       7.04453536
Au      27.20261044       6.64397532      12.15906995
Au      27.20261044       8.12041428       4.48726807
Au      27.20261044       8.12041428       9.60180266
Au      27.20261044       8.12041428      14.71633724
Au      27.20261044       9.59685323       1.93000078
Au      27.20261044       9.59685323       7.04453536
Au      27.20261044       9.59685323      12.15906995
Au      27.20261044      11.07329219       4.48726807
Au      27.20261044      11.07329219       9.60180266
Au      27.20261044      11.07329219      14.71633724
Au      27.20261044      12.54973115       1.93000078
Au      27.20261044      12.54973115       7.04453536
Au      27.20261044      12.54973115      12.15906995
Au      27.20261044      14.02617011       4.48726807
Au      27.20261044      14.02617011       9.60180266
Au      27.20261044      14.02617011      14.71633724
Au      29.61362516       0.73821948       0.22515592
Au      29.61362516       0.73821948       5.33969050
Au      29.61362516       0.73821948      10.45422509
Au      29.61362516       2.21465844       2.78242321
Au      29.61362516       2.21465844       7.89695779
Au      29.61362516       2.21465844      13.01149238
Au      29.61362516       3.69109740       0.22515592
Au      29.61362516       3.69109740       5.33969050
Au      29.61362516       3.69109740      10.45422509
Au      29.61362516       5.16753636       2.78242321
Au      29.61362516       5.16753636       7.89695779
Au      29.61362516       5.16753636      13.01149238
Au      29.61362516       6.64397532       0.22515592
Au      29.61362516       6.64397532       5.33969050
Au      29.61362516       6.64397532      10.45422509
Au      29.61362516       8.12041428       2.78242321
Au      29.61362516       8.12041428       7.89695779
Au      29.61362516       8.12041428      13.01149238
Au      29.61362516       9.59685323       0.22515592
Au      29.61362516       9.59685323       5.33969050
Au      29.61362516       9.59685323      10.45422509
Au      29.61362516      11.07329219       2.78242321
Au      29.61362516      11.07329219       7.89695779
Au      29.61362516      11.07329219      13.01149238
Au      29.61362516      12.54973115       0.22515592
Au      29.61362516      12.54973115       5.33969050
Au      29.61362516      12.54973115      10.45422509
Au      29.61362516      14.02617011       2.78242321
Au      29.61362516      14.02617011       7.89695779
Au      29.61362516      14.02617011      13.01149238
Au      32.02463988       0.73821948       3.63484564
Au      32.02463988       0.73821948       8.74938022
Au      32.02463988       0.73821948      13.86391481
Au      32.02463988       2.21465844       1.07757835
Au      32.02463988       2.21465844       6.19211293
Au      32.02463988       2.21465844      11.30664752
Au      32.02463988       3.69109740       3.63484564
Au      32.02463988       3.69109740       8.74938022
Au      32.02463988       3.69109740      13.86391481
Au      32.02463988       5.16753636       1.07757835
Au      32.02463988       5.16753636       6.19211293
Au      32.02463988       5.16753636      11.30664752
Au      32.02463988       6.64397532       3.63484564
Au      32.02463988       6.64397532       8.74938022
Au      32.02463988       6.64397532      13.86391481
Au      32.02463988       8.12041428       1.07757835
Au      32.02463988       8.12041428       6.19211293
Au      32.02463988       8.12041428      11.30664752
Au      32.02463988       9.59685323       3.63484564
Au      32.02463988       9.59685323       8.74938022
Au      32.02463988       9.59685323      13.86391481
Au      32.02463988      11.07329219       1.07757835
Au      32.02463988      11.07329219       6.19211293
Au      32.02463988      11.07329219      11.30664752
Au      32.02463988      12.54973115       3.63484564
Au      32.02463988      12.54973115       8.74938022
Au      32.02463988      12.54973115      13.86391481
Au      32.02463988      14.02617011       1.07757835
Au      32.02463988      14.02617011       6.19211293
Au      32.02463988      14.02617011      11.30664752
Au      34.43565460       0.73821948       1.93000078
Au      34.43565460       0.73821948       7.04453536
Au      34.43565460       0.73821948      12.15906995
Au      34.43565460       2.21465844       4.48726807
Au      34.43565460       2.21465844       9.60180266
Au      34.43565460       2.21465844      14.71633724
Au      34.43565460       3.69109740       1.93000078
Au      34.43565460       3.69109740       7.04453536
Au      34.43565460       3.69109740      12.15906995
Au      34.43565460       5.16753636       4.48726807
Au      34.43565460       5.16753636       9.60180266
Au      34.43565460       5.16753636      14.71633724
Au      34.43565460       6.64397532       1.93000078
Au      34.43565460       6.64397532       7.04453536
Au      34.43565460       6.64397532      12.15906995
Au      34.43565460       8.12041428       4.48726807
Au      34.43565460       8.12041428       9.60180266
Au      34.43565460       8.12041428      14.71633724
Au      34.43565460       9.59685323       1.93000078
Au      34.43565460       9.59685323       7.04453536
Au      34.43565460       9.59685323      12.15906995
Au      34.43565460      11.07329219       4.48726807
Au      34.43565460      11.07329219       9.60180266
Au      34.43565460      11.07329219      14.71633724
Au      34.43565460      12.54973115       1.93000078
Au      34.43565460      12.54973115       7.04453536
Au      34.43565460      12.54973115      12.15906995
Au      34.43565460      14.02617011       4.48726807
Au      34.43565460      14.02617011       9.60180266
Au      34.43565460      14.02617011      14.71633724
