2
Lattice="10.0 0.0 0.0 0.0 10.0 0.0 0.0 0.0 10.0" Properties=species:S:1:pos:R:3:forces:R:3:magmoms:R:1 energy=-6.708311495801859 dipole="1.0925106423686223e-15 3.4696755391308003e-15 3.3356552567481816e-15" magmom=0.0 free_energy=-6.708311495801859 pbc="T T T"
H        4.62286893       5.00000000       5.00000000       0.01777831       0.00000000       0.00000000       0.00000000
H        5.37713107       5.00000000       5.00000000      -0.01777831       0.00000000       0.00000000       0.00000000
